ITEM: TIMESTEP
0.0
ITEM: NUMBER OF ATOMS
2
ITEM: ATOMS x y z radius osmolarity
0.0 0.0 0.0 3.0 0.1
3.0 5.196152422706632 0.0 3.0 1.0
ITEM: TIMESTEP
0.1
ITEM: NUMBER OF ATOMS
2
ITEM: ATOMS x y z radius osmolarity
0.10725380985994702 0.30718071563375227 0.0 3.0 0.1
2.8927461901400537 4.888971707072877 0.0 3.0 1.0
ITEM: TIMESTEP
0.2
ITEM: NUMBER OF ATOMS
2
ITEM: ATOMS x y z radius osmolarity
0.16266287603431806 0.453742390556867 0.0 3.0 0.1
2.837337123965683 4.742410032149762 0.0 3.0 1.0
ITEM: TIMESTEP
0.3
ITEM: NUMBER OF ATOMS
2
ITEM: ATOMS x y z radius osmolarity
0.1884922944933642 0.5194690734988792 0.0 3.0 0.1
2.811507705506636 4.67668334920775 0.0 3.0 1.0
ITEM: TIMESTEP
0.4
ITEM: NUMBER OF ATOMS
2
ITEM: ATOMS x y z radius osmolarity
0.20038438961270588 0.5492009649336042 0.0 3.0 0.1
2.7996156103872942 4.646951457773025 0.0 3.0 1.0
ITEM: TIMESTEP
0.5
ITEM: NUMBER OF ATOMS
2
ITEM: ATOMS x y z radius osmolarity
0.20582906508656743 0.5627043992991562 0.0 3.0 0.1
2.7941709349134323 4.633448023407471 0.0 3.0 1.0
